 Gaussian 16, Revision A.03,
 Gaussian 16:  ES64L-G16RevA.03 25-Dec-2016

 ---------------------
 #n wB97xd/6-31G(d) SP
 ---------------------

 -----
 Title
 -----
 Symbolic Z-matrix:
 Charge =  0 Multiplicity = 1

                         Standard orientation:
 ---------------------------------------------------------------------
 Center     Atomic      Atomic             Coordinates (Angstroms)
 Number     Number       Type             X           Y           Z
 ---------------------------------------------------------------------
      1          6           0       -1.221100    0.705000    2.000000
      2          1           0       -2.052480    1.185000    2.000000
      3          6           0        0.000000    1.410000    2.000000
      4          1           0        0.000000    2.370000    2.000000
      5          6           0        1.221100    0.705000    2.000000
      6          1           0        2.052480    1.185000    2.000000
      7          6           0       -1.221100   -0.705000    2.000000
      8          1           0       -2.052480   -1.185000    2.000000
      9          6           0       -0.000000   -1.410000    2.000000
     10          1           0       -0.000000   -2.370000    2.000000
     11          6           0        1.221100   -0.705000    2.000000
     12          1           0        2.052480   -1.185000    2.000000
     13          6           0       -1.047830    0.943470   -2.000000
     14          1           0       -1.761250    1.585840   -2.000000
     15          6           0        0.293160    1.379190   -2.000000
     16          1           0        0.492750    2.318210   -2.000000
     17          6           0        1.340990    0.435710   -2.000000
     18          1           0        2.254000    0.732370   -2.000000
     19          6           0       -1.340990   -0.435710   -2.000000
     20          1           0       -2.254000   -0.732370   -2.000000
     21          6           0       -0.293160   -1.379190   -2.000000
     22          1           0       -0.492750   -2.318210   -2.000000
     23          6           0        1.047830   -0.943470   -2.000000
     24          1           0        1.761250   -1.585840   -2.000000
 ---------------------------------------------------------------------

 SCF Done:  E(RwB97XD) =  -464.168514418     A.U. after   11 cycles

 The electronic state is 1-A.
 Alpha  occ. eigenvalues --  -10.27984 -10.27983 -10.27960 -10.27960 -10.27959
 Alpha  occ. eigenvalues --  -10.27959 -10.27908 -10.27907 -10.27907 -10.27907
 Alpha  occ. eigenvalues --  -10.27883 -10.27883  -0.93687  -0.93550  -0.84025
 Alpha  occ. eigenvalues --   -0.84025  -0.83908  -0.83908  -0.70424  -0.70424
 Alpha  occ. eigenvalues --   -0.70329  -0.70329  -0.62389  -0.62300  -0.58390
 Alpha  occ. eigenvalues --   -0.58322  -0.51119  -0.51082  -0.50946  -0.50946
 Alpha  occ. eigenvalues --   -0.50881  -0.50881  -0.44236  -0.42570  -0.42465
 Alpha  occ. eigenvalues --   -0.42465  -0.42427  -0.42427  -0.31796  -0.31796
 Alpha  occ. eigenvalues --   -0.30320  -0.30319
 Alpha virt. eigenvalues --    0.07119   0.07120   0.08648   0.08648   0.21763
 Alpha virt. eigenvalues --    0.22847   0.24257   0.25363   0.26358   0.26358
 Alpha virt. eigenvalues --    0.27643   0.27643   0.28557   0.28557   0.29600

 Mulliken charges:
               1
     1  C   -0.151661
     2  H    0.151659
     3  C   -0.151705
     4  H    0.151661
     5  C   -0.151614
     6  H    0.151660
     7  C   -0.151614
     8  H    0.151660
     9  C   -0.151705
    10  H    0.151661
    11  C   -0.151661
    12  H    0.151659
    13  C   -0.151630
    14  H    0.151672
    15  C   -0.151670
    16  H    0.151660
    17  C   -0.151689
    18  H    0.151656
    19  C   -0.151689
    20  H    0.151656
    21  C   -0.151670
    22  H    0.151660
    23  C   -0.151630
    24  H    0.151672
 Sum of Mulliken charges =  -0.00000

 Dipole moment (field-independent basis, Debye):
    X=              0.0000    Y=             -0.0000    Z=             -0.0002  Tot=              0.0002
 Quadrupole moment (field-independent basis, Debye-Ang):
   XX=            -60.9853   YY=            -60.9853   ZZ=            -76.8366
   XY=             -0.0000   XZ=             -0.0000   YZ=             -0.0000

 1\1\GINC-PADAWAN-42\SP\RwB97XD\6-31G(d)\C12H12\PADAWAN\23-Mar-2022\0\\
 #n wB97xd/6-31G(d) SP\\Title\\0,1\C,0,-1.2211,-0.705,0.\H,0,-2.05248,-
 1.185,0.\C,0,0.,-1.41,0.\H,0,0.,-2.37,0.\C,0,1.2211,-0.705,0.\H,0,2.05
 248,-1.185,0.\C,0,-1.2211,0.705,0.\H,0,-2.05248,1.185,0.\C,0,0.,1.41,0
 .\H,0,0.,2.37,0.\C,0,1.2211,0.705,0.\H,0,2.05248,1.185,0.\C,0,-1.04783
 ,-0.94347,4.\H,0,-1.76125,-1.58584,4.\C,0,0.29316,-1.37919,4.\H,0,0.49
 275,-2.31821,4.\C,0,1.34099,-0.43571,4.\H,0,2.254,-0.73237,4.\C,0,-1.3
 4099,0.43571,4.\H,0,-2.254,0.73237,4.\C,0,-0.29316,1.37919,4.\H,0,-0.4

 Normal termination of Gaussian 16 at Wed Mar 23 15:16:10 2022.
