 Gaussian 16, Revision A.03,
 Gaussian 16:  ES64L-G16RevA.03 25-Dec-2016

 ---------------------
 #n wB97xd/6-31G(d) SP
 ---------------------

 -----
 Title
 -----
 Symbolic Z-matrix:
 Charge =  0 Multiplicity = 1

                         Standard orientation:
 ---------------------------------------------------------------------
 Center     Atomic      Atomic             Coordinates (Angstroms)
 Number     Number       Type             X           Y           Z
 ---------------------------------------------------------------------
      1          6           0       -1.221100    0.705000    2.000000
      2          1           0       -2.052480    1.185000    2.000000
      3          6           0        0.000000    1.410000    2.000000
      4          1           0        0.000000    2.370000    2.000000
      5          6           0        1.221100    0.705000    2.000000
      6          1           0        2.052480    1.185000    2.000000
      7          6           0       -1.221100   -0.705000    2.000000
      8          1           0       -2.052480   -1.185000    2.000000
      9          6           0       -0.000000   -1.410000    2.000000
     10          1           0       -0.000000   -2.370000    2.000000
     11          6           0        1.221100   -0.705000    2.000000
     12          1           0        2.052480   -1.185000    2.000000
     13          6           0       -0.573500    1.288100   -2.000000
     14          1           0       -0.963970    2.165100   -2.000000
     15          6           0        0.828780    1.140710   -2.000000
     16          1           0        1.393050    1.917370   -2.000000
     17          6           0        1.402280   -0.147390   -2.000000
     18          1           0        2.357020   -0.247730   -2.000000
     19          6           0       -1.402280    0.147390   -2.000000
     20          1           0       -2.357020    0.247730   -2.000000
     21          6           0       -0.828780   -1.140710   -2.000000
     22          1           0       -1.393050   -1.917370   -2.000000
     23          6           0        0.573500   -1.288100   -2.000000
     24          1           0        0.963970   -2.165100   -2.000000
 ---------------------------------------------------------------------

 SCF Done:  E(RwB97XD) =  -464.168532769     A.U. after   11 cycles

 The electronic state is 1-A.
 Alpha  occ. eigenvalues --  -10.27984 -10.27984 -10.27960 -10.27960 -10.27959
 Alpha  occ. eigenvalues --  -10.27959 -10.27908 -10.27907 -10.27907 -10.27907
 Alpha  occ. eigenvalues --  -10.27883 -10.27883  -0.93687  -0.93550  -0.84025
 Alpha  occ. eigenvalues --   -0.84025  -0.83908  -0.83908  -0.70423  -0.70423
 Alpha  occ. eigenvalues --   -0.70330  -0.70330  -0.62389  -0.62300  -0.58369
 Alpha  occ. eigenvalues --   -0.58343  -0.51107  -0.51093  -0.50945  -0.50945
 Alpha  occ. eigenvalues --   -0.50883  -0.50882  -0.44236  -0.42570  -0.42454
 Alpha  occ. eigenvalues --   -0.42454  -0.42438  -0.42438  -0.31795  -0.31795
 Alpha  occ. eigenvalues --   -0.30319  -0.30319
 Alpha virt. eigenvalues --    0.07127   0.07128   0.08638   0.08639   0.21776
 Alpha virt. eigenvalues --    0.22834   0.24603   0.25026   0.26383   0.26383
 Alpha virt. eigenvalues --    0.27617   0.27617   0.28595   0.28595   0.29563

 Mulliken charges:
               1
     1  C   -0.151598
     2  H    0.151670
     3  C   -0.151784
     4  H    0.151668
     5  C   -0.151624
     6  H    0.151669
     7  C   -0.151624
     8  H    0.151669
     9  C   -0.151784
    10  H    0.151668
    11  C   -0.151598
    12  H    0.151670
    13  C   -0.151626
    14  H    0.151675
    15  C   -0.151605
    16  H    0.151663
    17  C   -0.151776
    18  H    0.151669
    19  C   -0.151776
    20  H    0.151669
    21  C   -0.151605
    22  H    0.151663
    23  C   -0.151626
    24  H    0.151675
 Sum of Mulliken charges =  -0.00000

 Dipole moment (field-independent basis, Debye):
    X=              0.0000    Y=              0.0000    Z=             -0.0000  Tot=              0.0000
 Quadrupole moment (field-independent basis, Debye-Ang):
   XX=            -60.9846   YY=            -60.9848   ZZ=            -76.8363
   XY=              0.0001   XZ=              0.0000   YZ=             -0.0000

 1\1\GINC-PADAWAN-42\SP\RwB97XD\6-31G(d)\C12H12\PADAWAN\23-Mar-2022\0\\
 #n wB97xd/6-31G(d) SP\\Title\\0,1\C,0,-1.2211,-0.705,0.\H,0,-2.05248,-
 1.185,0.\C,0,0.,-1.41,0.\H,0,0.,-2.37,0.\C,0,1.2211,-0.705,0.\H,0,2.05
 248,-1.185,0.\C,0,-1.2211,0.705,0.\H,0,-2.05248,1.185,0.\C,0,0.,1.41,0
 .\H,0,0.,2.37,0.\C,0,1.2211,0.705,0.\H,0,2.05248,1.185,0.\C,0,-0.5735,
 -1.2881,4.\H,0,-0.96397,-2.1651,4.\C,0,0.82878,-1.14071,4.\H,0,1.39305
 ,-1.91737,4.\C,0,1.40228,0.14739,4.\H,0,2.35702,0.24773,4.\C,0,-1.4022
 8,-0.14739,4.\H,0,-2.35702,-0.24773,4.\C,0,-0.82878,1.14071,4.\H,0,-1.

 Normal termination of Gaussian 16 at Wed Mar 23 15:16:17 2022.
