 Gaussian 16, Revision A.03,
 Gaussian 16:  ES64L-G16RevA.03 25-Dec-2016

 ---------------------
 #n wB97xd/6-31G(d) SP
 ---------------------

 -----
 Title
 -----
 Symbolic Z-matrix:
 Charge =  0 Multiplicity = 1

                         Standard orientation:
 ---------------------------------------------------------------------
 Center     Atomic      Atomic             Coordinates (Angstroms)
 Number     Number       Type             X           Y           Z
 ---------------------------------------------------------------------
      1          6           0       -1.221100    0.705000    3.000000
      2          1           0       -2.052480    1.185000    3.000000
      3          6           0        0.000000    1.410000    3.000000
      4          1           0        0.000000    2.370000    3.000000
      5          6           0        1.221100    0.705000    3.000000
      6          1           0        2.052480    1.185000    3.000000
      7          6           0       -1.221100   -0.705000    3.000000
      8          1           0       -2.052480   -1.185000    3.000000
      9          6           0       -0.000000   -1.410000    3.000000
     10          1           0       -0.000000   -2.370000    3.000000
     11          6           0        1.221100   -0.705000    3.000000
     12          1           0        2.052480   -1.185000    3.000000
     13          6           0        0.000000    1.410000   -3.000000
     14          1           0        0.000000    2.370000   -3.000000
     15          6           0        1.221100    0.705000   -3.000000
     16          1           0        2.052480    1.185000   -3.000000
     17          6           0        1.221100   -0.705000   -3.000000
     18          1           0        2.052480   -1.185000   -3.000000
     19          6           0       -1.221100    0.705000   -3.000000
     20          1           0       -2.052480    1.185000   -3.000000
     21          6           0       -1.221100   -0.705000   -3.000000
     22          1           0       -2.052480   -1.185000   -3.000000
     23          6           0       -0.000000   -1.410000   -3.000000
     24          1           0       -0.000000   -2.370000   -3.000000
 ---------------------------------------------------------------------

 SCF Done:  E(RwB97XD) =  -464.165296739     A.U. after   10 cycles

 The electronic state is 1-AG.
 Alpha  occ. eigenvalues --  -10.28284 -10.28284 -10.28260 -10.28260 -10.28260
 Alpha  occ. eigenvalues --  -10.28260 -10.28207 -10.28207 -10.28207 -10.28207
 Alpha  occ. eigenvalues --  -10.28183 -10.28183  -0.93947  -0.93946  -0.84270
 Alpha  occ. eigenvalues --   -0.84270  -0.84269  -0.84269  -0.70654  -0.70654
 Alpha  occ. eigenvalues --   -0.70654  -0.70654  -0.62625  -0.62624  -0.58603
 Alpha  occ. eigenvalues --   -0.58602  -0.51401  -0.51401  -0.51197  -0.51197
 Alpha  occ. eigenvalues --   -0.51197  -0.51197  -0.43786  -0.43761  -0.42724
 Alpha  occ. eigenvalues --   -0.42724  -0.42723  -0.42723  -0.31421  -0.31421
 Alpha  occ. eigenvalues --   -0.31400  -0.31400
 Alpha virt. eigenvalues --    0.07550   0.07550   0.07575   0.07575   0.22152
 Alpha virt. eigenvalues --    0.22163   0.24505   0.24528   0.26872   0.26872
 Alpha virt. eigenvalues --    0.26885   0.26885   0.28918   0.28918   0.28928

 Mulliken charges:
               1
     1  C   -0.155127
     2  H    0.155135
     3  C   -0.155153
     4  H    0.155138
     5  C   -0.155127
     6  H    0.155135
     7  C   -0.155127
     8  H    0.155135
     9  C   -0.155153
    10  H    0.155138
    11  C   -0.155127
    12  H    0.155135
    13  C   -0.155153
    14  H    0.155138
    15  C   -0.155127
    16  H    0.155135
    17  C   -0.155127
    18  H    0.155135
    19  C   -0.155127
    20  H    0.155135
    21  C   -0.155127
    22  H    0.155135
    23  C   -0.155153
    24  H    0.155138
 Sum of Mulliken charges =  -0.00000

 Dipole moment (field-independent basis, Debye):
    X=              0.0000    Y=             -0.0000    Z=             -0.0000  Tot=              0.0000
 Quadrupole moment (field-independent basis, Debye-Ang):
   XX=            -60.7375   YY=            -60.7376   ZZ=            -76.5849
   XY=             -0.0000   XZ=             -0.0000   YZ=             -0.0000

 1\1\GINC-PADAWAN-42\SP\RwB97XD\6-31G(d)\C12H12\PADAWAN\29-Mar-2022\0\\
 #n wB97xd/6-31G(d) SP\\Title\\0,1\C,0,-1.2211,-0.705,0.\H,0,-2.05248,-
 1.185,0.\C,0,0.,-1.41,0.\H,0,0.,-2.37,0.\C,0,1.2211,-0.705,0.\H,0,2.05
 248,-1.185,0.\C,0,-1.2211,0.705,0.\H,0,-2.05248,1.185,0.\C,0,0.,1.41,0
 .\H,0,0.,2.37,0.\C,0,1.2211,0.705,0.\H,0,2.05248,1.185,0.\C,0,0.,-1.41
 ,6.\H,0,0.,-2.37,6.\C,0,1.2211,-0.705,6.\H,0,2.05248,-1.185,6.\C,0,1.2
 211,0.705,6.\H,0,2.05248,1.185,6.\C,0,-1.2211,-0.705,6.\H,0,-2.05248,-
 1.185,6.\C,0,-1.2211,0.705,6.\H,0,-2.05248,1.185,6.\C,0,0.,1.41,6.\H,0

 Normal termination of Gaussian 16 at Tue Mar 29 10:07:58 2022.
