 Gaussian 16, Revision A.03,
 Gaussian 16:  ES64L-G16RevA.03 25-Dec-2016

 ----------------------------------------
 #n B3LYP/6-31G(d) Opt freq TD(nstates=1)
 ----------------------------------------

 -----
 Title
 -----
 Symbolic Z-matrix:
 Charge =  0 Multiplicity = 1

 SCF Done:  E(RB3LYP) =  -808.781650056     A.U. after   14 cycles
 Total Energy, E(TD-HF/TD-DFT) =  -808.643167251
 SCF Done:  E(RB3LYP) =  -808.871400045     A.U. after   13 cycles
 Total Energy, E(TD-HF/TD-DFT) =  -808.737897465
 SCF Done:  E(RB3LYP) =  -808.915351313     A.U. after   13 cycles
 Total Energy, E(TD-HF/TD-DFT) =  -808.790417462
 SCF Done:  E(RB3LYP) =  -808.917749888     A.U. after   12 cycles
 Total Energy, E(TD-HF/TD-DFT) =  -808.793557515
 SCF Done:  E(RB3LYP) =  -808.916989477     A.U. after   12 cycles
 Total Energy, E(TD-HF/TD-DFT) =  -808.793963372
 SCF Done:  E(RB3LYP) =  -808.916690693     A.U. after   11 cycles
 Total Energy, E(TD-HF/TD-DFT) =  -808.794042040
 SCF Done:  E(RB3LYP) =  -808.916326486     A.U. after   12 cycles
 Total Energy, E(TD-HF/TD-DFT) =  -808.794080087
 SCF Done:  E(RB3LYP) =  -808.916957467     A.U. after   11 cycles
 Total Energy, E(TD-HF/TD-DFT) =  -808.794263722
 SCF Done:  E(RB3LYP) =  -808.917024401     A.U. after   10 cycles
 Total Energy, E(TD-HF/TD-DFT) =  -808.794279551
 SCF Done:  E(RB3LYP) =  -808.917013630     A.U. after    8 cycles
 Total Energy, E(TD-HF/TD-DFT) =  -808.794281561
 SCF Done:  E(RB3LYP) =  -808.917023563     A.U. after    8 cycles
 Total Energy, E(TD-HF/TD-DFT) =  -808.794281900
 Optimization completed.
    -- Stationary point found.
 Normal termination of Gaussian 16 at Thu Feb 17 20:45:54 2022.

 ----------------------------------------------------------------------
 #N Geom=AllCheck Guess=TCheck SCRF=Check GenChk RB3LYP TD(FC,Read)/6-3
 1G(d) Freq
 ----------------------------------------------------------------------

 Structure from the checkpoint file:  "C19H16OS1.chk"
 -----
 Title
 -----
 Charge =  0 Multiplicity = 1

                         Standard orientation:
 ---------------------------------------------------------------------
 Center     Atomic      Atomic             Coordinates (Angstroms)
 Number     Number       Type             X           Y           Z
 ---------------------------------------------------------------------
      1          8           0       -3.355178   -1.501094   -0.923881
      2          1           0       -3.120614   -1.122332   -1.787381
      3          6           0       -0.881846    2.543603   -0.051734
      4          1           0       -0.952376    3.628434   -0.049623
      5          6           0       -2.035891    1.773797   -0.069468
      6          1           0       -2.987319    2.292591   -0.070295
      7          6           0       -2.016085    0.371333   -0.067712
      8          6           0       -0.715518   -0.292576   -0.079959
      9          6           0       -0.559689   -1.700144   -0.133485
     10          1           0       -1.439030   -2.320893   -0.236235
     11          6           0        0.698466   -2.304040   -0.102309
     12          1           0        0.768603   -3.388422   -0.138048
     13          6           0        1.883725   -1.542693   -0.037531
     14          6           0        3.177445   -2.145094   -0.006153
     15          1           0        3.250287   -3.229354   -0.025109
     16          6           0        4.326271   -1.358760    0.045814
     17          1           0        5.303800   -1.833099    0.068087
     18          6           0        4.233144    0.029798    0.065287
     19          1           0        5.132011    0.640244    0.098110
     20          6           0        2.962981    0.684841    0.037662
     21          6           0        2.846345    2.092304    0.054336
     22          1           0        3.747892    2.698144    0.091458
     23          6           0        1.593615    2.703412    0.022343
     24          1           0        1.517262    3.787721    0.031156
     25          6           0        0.408029    1.938078   -0.019686
     26          6           0        1.768044   -0.114048   -0.012409
     27          6           0        0.486560    0.504693   -0.035230
     28          6           0       -3.326034   -0.413680    0.034239
     29          6           0       -4.582210    0.440475   -0.220207
     30          1           0       -4.532890    0.945097   -1.192229
     31          1           0       -5.448352   -0.227175   -0.227876
     32          1           0       -4.742303    1.197980    0.553772
     33          6           0       -3.459813   -1.092083    1.412478
     34          1           0       -2.585505   -1.704237    1.644487
     35          1           0       -3.568262   -0.336013    2.196250
     36          1           0       -4.347019   -1.735225    1.416872
 ---------------------------------------------------------------------

 SCF Done:  E(RB3LYP) =  -808.917023563     A.U. after    1 cycles

 Excitation energies and oscillator strengths:

 Excited State   1:      Singlet-A      3.3400 eV  371.21 nm  f=0.3746  <S**2>=0.000
      68 -> 71        -0.16510
      69 -> 70        -0.68758
 This state for optimization and/or second-order correction.
 Total Energy, E(TD-HF/TD-DFT) =  -808.794281903
 Copying the excited state density for this state as the 1-particle RhoCI density.

 The electronic state is 1-A.
 Alpha  occ. eigenvalues --  -19.14320 -10.25023 -10.20220 -10.19981 -10.19915
 Alpha  occ. eigenvalues --  -10.19908 -10.19857 -10.19723 -10.19664 -10.19361
 Alpha  occ. eigenvalues --  -10.19290 -10.19228 -10.19189 -10.19130 -10.19115
 Alpha  occ. eigenvalues --  -10.18996 -10.18880 -10.18280 -10.17719 -10.17308
 Alpha  occ. eigenvalues --   -1.01604  -0.88549  -0.84438  -0.82511  -0.80028
 Alpha  occ. eigenvalues --   -0.77646  -0.75386  -0.73842  -0.72879  -0.69822
 Alpha  occ. eigenvalues --   -0.68960  -0.63494  -0.62093  -0.61987  -0.60456
 Alpha  occ. eigenvalues --   -0.57599  -0.53881  -0.52343  -0.51282  -0.50325
 Alpha  occ. eigenvalues --   -0.49194  -0.48181  -0.45825  -0.44149  -0.43757
 Alpha  occ. eigenvalues --   -0.43443  -0.42338  -0.41976  -0.40752  -0.40510
 Alpha  occ. eigenvalues --   -0.39643  -0.38732  -0.38604  -0.38117  -0.37298
 Alpha  occ. eigenvalues --   -0.36998  -0.36310  -0.35636  -0.35219  -0.33549
 Alpha  occ. eigenvalues --   -0.32749  -0.32231  -0.31458  -0.29435  -0.27250
 Alpha  occ. eigenvalues --   -0.26009  -0.24676  -0.23167  -0.18757
 Alpha virt. eigenvalues --   -0.06422  -0.02050  -0.00433   0.01805   0.05432
 Alpha virt. eigenvalues --    0.08040   0.09824   0.10493   0.11179   0.12408
 Alpha virt. eigenvalues --    0.12851   0.13454   0.14098   0.14839   0.15099

 Mulliken charges:
               1
     1  O   -0.630485
     2  H    0.388397
     3  C   -0.221300
     4  H    0.128526
     5  C   -0.189859
     6  H    0.128903
     7  C    0.055551
     8  C    0.081830
     9  C   -0.225075
    10  H    0.173732
    11  C   -0.217312
    12  H    0.130141
    13  C    0.169445
    14  C   -0.214555
    15  H    0.130805
    16  C   -0.122868
    17  H    0.131143
    18  C   -0.214800
    19  H    0.129165
    20  C    0.164717
    21  C   -0.212133
    22  H    0.131570
    23  C   -0.207308
    24  H    0.130461
    25  C    0.166908
    26  C   -0.021367
    27  C    0.003735
    28  C    0.233028
    29  C   -0.466344
    30  H    0.139265
    31  H    0.160358
    32  H    0.145883
    33  C   -0.441400
    34  H    0.160637
    35  H    0.146933
    36  H    0.153673
 Sum of Mulliken charges =  -0.00000

 Dipole moment (field-independent basis, Debye):
    X=              0.1202    Y=              1.1615    Z=             -0.2858  Tot=              1.2022
 Quadrupole moment (field-independent basis, Debye-Ang):
   XX=           -105.1040   YY=           -107.8206   ZZ=           -117.7029
   XY=             -4.8340   XZ=              0.6018   YZ=             -0.2520

  Exact polarizability: 406.200   0.315 308.191   4.322   2.127  85.494
 Approx polarizability: 625.444 -85.571 461.918   9.966   4.041 133.082

                      1                      2                      3
                      A                      A                      A
 Frequencies --     46.2478                72.1208               112.6871
 Red. masses --      3.9659                 3.9183                 4.3445
 Frc consts  --      0.0050                 0.0120                 0.0325
 IR Inten    --      0.0957                 0.5805                 0.4589

                      4                      5                      6
                      A                      A                      A
 Frequencies --    154.7089               167.7070               212.9544
 Red. masses --      3.8897                 3.7204                 3.3962
 Frc consts  --      0.0549                 0.0617                 0.0907
 IR Inten    --      0.3073                 1.8028                 5.9780

                      7                      8                      9
                      A                      A                      A
 Frequencies --    220.0778               232.7851               260.5173
 Red. masses --      2.7686                 1.3500                 4.0818
 Frc consts  --      0.0790                 0.0431                 0.1632
 IR Inten    --      0.9063                 7.9521                 9.4709

                     10                     11                     12
                      A                      A                      A
 Frequencies --    262.0016               301.2212               326.9945
 Red. masses --      4.0510                 3.0924                 1.0897
 Frc consts  --      0.1638                 0.1653                 0.0687
 IR Inten    --      7.8692                 0.8900                 0.5646

                     13                     14                     15
                      A                      A                      A
 Frequencies --    340.3000               355.5932               384.7016
 Red. masses --      1.9421                 1.7158                 2.4796
 Frc consts  --      0.1325                 0.1278                 0.2162
 IR Inten    --     29.7428               110.0539                40.2873

                     16                     17                     18
                      A                      A                      A
 Frequencies --    396.0737               417.2926               438.2217
 Red. masses --      3.7176                 6.1786                 3.3310
 Frc consts  --      0.3436                 0.6339                 0.3769
 IR Inten    --      6.9103                 5.7981                 1.5328

                     19                     20                     21
                      A                      A                      A
 Frequencies --    457.0285               461.4855               470.4570
 Red. masses --      4.9629                 3.5874                 4.5844
 Frc consts  --      0.6108                 0.4501                 0.5978
 IR Inten    --      7.0991                 3.2881                16.9334

                     22                     23                     24
                      A                      A                      A
 Frequencies --    500.9262               508.2074               519.6718
 Red. masses --      3.7731                 5.1561                 3.9967
 Frc consts  --      0.5578                 0.7846                 0.6359
 IR Inten    --      8.7690                13.3206                34.5284

                     25                     26                     27
                      A                      A                      A
 Frequencies --    531.3107               552.3799               594.3491
 Red. masses --      3.1233                 4.8672                 5.0643
 Frc consts  --      0.5195                 0.8750                 1.0540
 IR Inten    --      0.2673                15.7008                 5.1655

                     28                     29                     30
                      A                      A                      A
 Frequencies --    615.1707               653.6405               659.8592
 Red. masses --      3.9204                 3.6341                 4.9315
 Frc consts  --      0.8741                 0.9148                 1.2651
 IR Inten    --     10.1423                 5.5119                10.5334

                     31                     32                     33
                      A                      A                      A
 Frequencies --    691.7884               710.2458               736.0694
 Red. masses --      6.8525                 2.0760                 1.6307
 Frc consts  --      1.9322                 0.6170                 0.5205
 IR Inten    --      7.1488                15.8014                 0.9520

                     34                     35                     36
                      A                      A                      A
 Frequencies --    752.3266               760.7567               800.7842
 Red. masses --      5.1276                 1.3793                 2.4155
 Frc consts  --      1.7099                 0.4703                 0.9126
 IR Inten    --      0.3888                 0.4027                 0.9488

                     37                     38                     39
                      A                      A                      A
 Frequencies --    809.6679               814.4172               824.9767
 Red. masses --      2.0364                 4.9084                 4.5700
 Frc consts  --      0.7866                 1.9182                 1.8325
 IR Inten    --      6.8775                23.7138                 0.8561

                     40                     41                     42
                      A                      A                      A
 Frequencies --    832.9415               852.4224               884.0560
 Red. masses --      1.7700                 1.5370                 3.3786
 Frc consts  --      0.7235                 0.6580                 1.5558
 IR Inten    --     77.4426                 4.1713                 3.3600

                     43                     44                     45
                      A                      A                      A
 Frequencies --    900.8861               929.8397               939.5021
 Red. masses --      1.3838                 1.6475                 1.4327
 Frc consts  --      0.6617                 0.8392                 0.7451
 IR Inten    --      0.2810                11.9285                 0.2520

                     46                     47                     48
                      A                      A                      A
 Frequencies --    941.2439               951.9440               963.2846
 Red. masses --      1.5211                 1.3852                 1.7244
 Frc consts  --      0.7940                 0.7396                 0.9428
 IR Inten    --      3.8025                 3.1282                18.6250

                     49                     50                     51
                      A                      A                      A
 Frequencies --    985.7198              1026.3100              1046.4966
 Red. masses --      4.3814                 1.3063                 3.7791
 Frc consts  --      2.5082                 0.8107                 2.4384
 IR Inten    --      4.3852                 6.9650                 7.4773

                     52                     53                     54
                      A                      A                      A
 Frequencies --   1110.6137              1115.2395              1131.2386
 Red. masses --      2.0101                 1.7353                 1.7416
 Frc consts  --      1.4608                 1.2716                 1.3131
 IR Inten    --     10.5146                28.5972                 1.9584

                     55                     56                     57
                      A                      A                      A
 Frequencies --   1156.5915              1166.1452              1171.5592
 Red. masses --      1.4900                 2.2876                 1.7987
 Frc consts  --      1.1743                 1.8329                 1.4546
 IR Inten    --      6.7580                30.4812                 6.8424

                     58                     59                     60
                      A                      A                      A
 Frequencies --   1178.2205              1197.9981              1224.9306
 Red. masses --      2.5846                 1.8066                 2.0801
 Frc consts  --      2.1140                 1.5276                 1.8389
 IR Inten    --     13.5181                 6.3930                12.9084

                     61                     62                     63
                      A                      A                      A
 Frequencies --   1227.9279              1254.1717              1264.7918
 Red. masses --      1.6667                 2.4773                 2.5463
 Frc consts  --      1.4807                 2.2958                 2.4000
 IR Inten    --     10.1802                13.7151                22.8302

                     64                     65                     66
                      A                      A                      A
 Frequencies --   1275.0446              1295.1900              1318.2949
 Red. masses --      1.9854                 1.9860                 6.1666
 Frc consts  --      1.9017                 1.9629                 6.3142
 IR Inten    --     40.2641                 1.3060               118.5717

                     67                     68                     69
                      A                      A                      A
 Frequencies --   1353.1428              1367.0778              1399.8319
 Red. masses --      1.6359                 3.7271                 3.0402
 Frc consts  --      1.7648                 4.1040                 3.5100
 IR Inten    --     72.5870                26.1888                 3.2816

                     70                     71                     72
                      A                      A                      A
 Frequencies --   1409.5981              1419.8067              1437.9550
 Red. masses --      4.7402                 1.3537                 1.3056
 Frc consts  --      5.5493                 1.6079                 1.5906
 IR Inten    --      0.4713                11.0732                 3.3737

                     73                     74                     75
                      A                      A                      A
 Frequencies --   1447.8805              1452.4142              1469.9015
 Red. masses --      2.5972                 1.6911                 2.6907
 Frc consts  --      3.2080                 2.1018                 3.4252
 IR Inten    --      3.6161                 2.8448                10.4889

                     76                     77                     78
                      A                      A                      A
 Frequencies --   1511.1499              1511.7848              1514.7597
 Red. masses --      1.6579                 1.5823                 1.0686
 Frc consts  --      2.2306                 2.1306                 1.4446
 IR Inten    --      4.0638                 8.2819                 4.0717

                     79                     80                     81
                      A                      A                      A
 Frequencies --   1522.8060              1532.6472              1536.9276
 Red. masses --      3.6358                 1.1228                 1.6772
 Frc consts  --      4.9675                 1.5539                 2.3343
 IR Inten    --      4.1526                 7.2199                 0.5445

                     82                     83                     84
                      A                      A                      A
 Frequencies --   1540.0099              1551.7758              1587.4713
 Red. masses --      1.5286                 3.2012                 4.1331
 Frc consts  --      2.1359                 4.5418                 6.1367
 IR Inten    --      2.1454                 1.3720                37.5332

                     85                     86                     87
                      A                      A                      A
 Frequencies --   1592.7427              1631.8270              3052.0795
 Red. masses --      4.6672                 6.5728                 1.0366
 Frc consts  --      6.9759                10.3121                 5.6892
 IR Inten    --     82.4187                 1.7496                17.2935

                     88                     89                     90
                      A                      A                      A
 Frequencies --   3061.4157              3120.5726              3129.6278
 Red. masses --      1.0373                 1.1017                 1.1016
 Frc consts  --      5.7279                 6.3210                 6.3571
 IR Inten    --     31.5668                26.0278                 9.5875

                     91                     92                     93
                      A                      A                      A
 Frequencies --   3139.9603              3154.6215              3179.9625
 Red. masses --      1.1020                 1.1012                 1.0854
 Frc consts  --      6.4012                 6.4567                 6.4667
 IR Inten    --     34.5532                16.1583                14.5596

                     94                     95                     96
                      A                      A                      A
 Frequencies --   3181.5886              3185.7199              3185.9746
 Red. masses --      1.0861                 1.0887                 1.0887
 Frc consts  --      6.4774                 6.5100                 6.5111
 IR Inten    --      1.6938                 2.7838                24.1601

                     97                     98                     99
                      A                      A                      A
 Frequencies --   3190.3843              3198.3534              3205.4773
 Red. masses --      1.0894                 1.0933                 1.0963
 Frc consts  --      6.5329                 6.5896                 6.6368
 IR Inten    --     28.3673                27.7224                48.2914

                    100                    101                    102
                      A                      A                      A
 Frequencies --   3228.0326              3257.0916              3717.0522
 Red. masses --      1.0901                 1.0904                 1.0661
 Frc consts  --      6.6927                 6.8156                 8.6784
 IR Inten    --     23.5170                 5.5991                 9.5862

 - Thermochemistry -
 -------------------
 Temperature   298.150 Kelvin.  Pressure   1.00000 Atm.
 Atom     1 has atomic number  8 and mass  15.99491

 Molecular mass:   260.12012 amu.
 Principal axes and moments of inertia in atomic units:
                           1         2         3
     Eigenvalues --  2522.265167070.648189210.17140
           X            0.99999  -0.00210  -0.00375
           Y            0.00208   0.99998  -0.00552
           Z            0.00376   0.00552   0.99998
 This molecule is an asymmetric top.
 Rotational symmetry number  1.
 Warning -- assumption of classical behavior for rotation
           may cause significant error
 Rotational temperatures (Kelvin)      0.03434     0.01225     0.00940
 Rotational constants (GHZ):           0.71552     0.25524     0.19595
 Zero-point vibrational energy     768300.2 (Joules/Mol)
                                  183.62814 (Kcal/Mol)
 Warning -- explicit consideration of  28 degrees of freedom as
           vibrations may cause significant error
 Vibrational temperatures:     66.54   103.77   162.13   222.59   241.29
          (Kelvin)            306.39   316.64   334.93   374.83   376.96
                              433.39   470.47   489.62   511.62   553.50
                              569.86   600.39   630.50   657.56   663.97
                              676.88   720.72   731.20   747.69   764.44
                              794.75   855.14   885.09   940.44   949.39
                              995.33  1021.89  1059.04  1082.43  1094.56
                             1152.15  1164.93  1171.76  1186.96  1198.42
                             1226.45  1271.96  1296.17  1337.83  1351.73
                             1354.24  1369.64  1385.95  1418.23  1476.63
                             1505.68  1597.93  1604.58  1627.60  1664.08
                             1677.82  1685.61  1695.20  1723.65  1762.40
                             1766.71  1804.47  1819.75  1834.50  1863.49
                             1896.73  1946.87  1966.92  2014.05  2028.10
                             2042.79  2068.90  2083.18  2089.70  2114.86
                             2174.21  2175.12  2179.40  2190.98  2205.14
                             2211.30  2215.73  2232.66  2284.02  2291.60
                             2347.84  4391.26  4404.69  4489.81  4502.84
                             4517.70  4538.80  4575.26  4577.60  4583.54
                             4583.91  4590.25  4601.72  4611.97  4644.42
                             4686.23  5348.01

 Zero-point correction=                           0.292630 (Hartree/Particle)
 Thermal correction to Energy=                    0.308437
 Thermal correction to Enthalpy=                  0.309381
 Thermal correction to Gibbs Free Energy=         0.251066
 Sum of electronic and zero-point Energies=           -808.501652
 Sum of electronic and thermal Energies=              -808.485845
 Sum of electronic and thermal Enthalpies=            -808.484901
 Sum of electronic and thermal Free Energies=         -808.543216

                     E (Thermal)             CV                S
                      KCal/Mol        Cal/Mol-Kelvin    Cal/Mol-Kelvin
 Total                  193.547             67.189            122.735
 Electronic               0.000              0.000              0.000
 Translational            0.889              2.981             42.568
 Rotational               0.889              2.981             33.462
 Vibrational            191.770             61.228             46.705
 Vibration     1          0.595              1.979              4.972
 Vibration     2          0.598              1.967              4.095
 Vibration     3          0.607              1.939              3.222
 Vibration     4          0.620              1.897              2.613
 Vibration     5          0.624              1.882              2.461
 Vibration     6          0.644              1.821              2.018
 Vibration     7          0.647              1.811              1.958
 Vibration     8          0.654              1.791              1.857
 Vibration     9          0.669              1.745              1.658
 Vibration    10          0.669              1.742              1.648
 Vibration    11          0.693              1.671              1.410
 Vibration    12          0.711              1.622              1.275
 Vibration    13          0.720              1.595              1.211
 Vibration    14          0.731              1.564              1.141
 Vibration    15          0.754              1.503              1.021
 Vibration    16          0.763              1.479              0.977
 Vibration    17          0.780              1.433              0.901
 Vibration    18          0.798              1.387              0.832
 Vibration    19          0.815              1.345              0.775
 Vibration    20          0.819              1.335              0.762
 Vibration    21          0.827              1.316              0.736
 Vibration    22          0.856              1.248              0.656
 Vibration    23          0.863              1.232              0.638
 Vibration    24          0.875              1.206              0.611
 Vibration    25          0.886              1.181              0.584
 Vibration    26          0.908              1.134              0.539
 Vibration    27          0.952              1.044              0.459
 Vibration    28          0.975              1.000              0.424

 Optimization completed.
    -- Stationary point found.
 Normal termination of Gaussian 16 at Thu Feb 17 21:12:43 2022.
