 Gaussian 16, Revision B.01,
 Gaussian 16:  EM64L-G16RevB.01 20-Dec-2017

 ---------------------
 #n wB97xd/6-31G(d) SP
 ---------------------

 -----
 Title
 -----
 Symbolic Z-matrix:
 Charge =  0 Multiplicity = 1

                         Standard orientation:
 ---------------------------------------------------------------------
 Center     Atomic      Atomic             Coordinates (Angstroms)
 Number     Number       Type             X           Y           Z
 ---------------------------------------------------------------------
      1          6           0        2.419128   -0.707337    2.000000
      2          6           0        2.419041    0.707248    2.000000
      3          6           0        1.239240    1.400530    2.000000
      4          6           0       -0.000007    0.705133    2.000000
      5          6           0       -0.000011   -0.704953    2.000000
      6          6           0        1.239248   -1.400538    2.000000
      7          6           0       -1.239252   -1.400651    2.000000
      8          6           0       -2.419053   -0.707369    2.000000
      9          6           0       -2.419040    0.707218    2.000000
     10          6           0       -1.239267    1.400717    2.000000
     11          1           0        3.376518   -1.238465    2.000000
     12          1           0        3.376336    1.238534    2.000000
     13          1           0        1.230972    2.496285    2.000000
     14          1           0        1.230814   -2.496330    2.000000
     15          1           0       -1.230786   -2.496302    2.000000
     16          1           0       -3.376554   -1.238359    2.000000
     17          1           0       -3.376428    1.238246    2.000000
     18          1           0       -1.231030    2.496405    2.000000
     19          6           0        2.419128   -0.707337   -2.000000
     20          6           0        2.419041    0.707248   -2.000000
     21          6           0        1.239240    1.400530   -2.000000
     22          6           0       -0.000007    0.705133   -2.000000
     23          6           0       -0.000011   -0.704953   -2.000000
     24          6           0        1.239248   -1.400538   -2.000000
     25          6           0       -1.239252   -1.400651   -2.000000
     26          6           0       -2.419053   -0.707369   -2.000000
     27          6           0       -2.419040    0.707218   -2.000000
     28          6           0       -1.239267    1.400717   -2.000000
     29          1           0        3.376518   -1.238465   -2.000000
     30          1           0        3.376336    1.238534   -2.000000
     31          1           0        1.230972    2.496285   -2.000000
     32          1           0        1.230814   -2.496330   -2.000000
     33          1           0       -1.230786   -2.496302   -2.000000
     34          1           0       -3.376554   -1.238359   -2.000000
     35          1           0       -3.376428    1.238246   -2.000000
     36          1           0       -1.231030    2.496405   -2.000000
 ---------------------------------------------------------------------

 SCF Done:  E(RwB97XD) =  -771.516901212     A.U. after   13 cycles

 The electronic state is 1-A'.
 Alpha  occ. eigenvalues --  -10.30094 -10.30093 -10.30044 -10.30043 -10.29633
 Alpha  occ. eigenvalues --  -10.29632 -10.29632 -10.29631 -10.29614 -10.29613
 Alpha  occ. eigenvalues --  -10.29611 -10.29610 -10.29563 -10.29562 -10.29561
 Alpha  occ. eigenvalues --  -10.29561 -10.29536 -10.29535 -10.29535 -10.29534
 Alpha  occ. eigenvalues --   -0.96939  -0.96802  -0.91424  -0.91297  -0.86473
 Alpha  occ. eigenvalues --   -0.86348  -0.83147  -0.83033  -0.80872  -0.80761
 Alpha  occ. eigenvalues --   -0.71056  -0.70955  -0.69537  -0.69445  -0.68309
 Alpha  occ. eigenvalues --   -0.68199  -0.59623  -0.59521  -0.58930  -0.58833
 Alpha  occ. eigenvalues --   -0.57427  -0.57342  -0.52730  -0.52610  -0.51844
 Alpha  occ. eigenvalues --   -0.51781  -0.49330  -0.49249  -0.49011  -0.48965
 Alpha  occ. eigenvalues --   -0.48061  -0.47591  -0.47504  -0.46454  -0.44145
 Alpha  occ. eigenvalues --   -0.44075  -0.41222  -0.40701  -0.40651  -0.40372
 Alpha  occ. eigenvalues --   -0.40288  -0.39657  -0.36308  -0.34859  -0.31376
 Alpha  occ. eigenvalues --   -0.30043  -0.28509  -0.27148
 Alpha virt. eigenvalues --    0.03119   0.04532   0.06256   0.07645   0.10650
 Alpha virt. eigenvalues --    0.12255   0.17318   0.18180   0.18567   0.19315
 Alpha virt. eigenvalues --    0.19907   0.20142   0.20179   0.21126   0.24860

 Mulliken charges:
               1
     1  C   -0.170059
     2  C   -0.170063
     3  C   -0.205825
     4  C    0.106281
     5  C    0.106198
     6  C   -0.205820
     7  C   -0.205782
     8  C   -0.170044
     9  C   -0.170076
    10  C   -0.205793
    11  H    0.161175
    12  H    0.161151
    13  H    0.161570
    14  H    0.161573
    15  H    0.161597
    16  H    0.161164
    17  H    0.161147
    18  H    0.161607
    19  C   -0.170059
    20  C   -0.170063
    21  C   -0.205825
    22  C    0.106281
    23  C    0.106198
    24  C   -0.205820
    25  C   -0.205782
    26  C   -0.170044
    27  C   -0.170076
    28  C   -0.205793
    29  H    0.161175
    30  H    0.161151
    31  H    0.161570
    32  H    0.161573
    33  H    0.161597
    34  H    0.161164
    35  H    0.161147
    36  H    0.161607
 Sum of Mulliken charges =  -0.00000

 Dipole moment (field-independent basis, Debye):
    X=             -0.0003    Y=             -0.0001    Z=             -0.0000  Tot=              0.0004
 Quadrupole moment (field-independent basis, Debye-Ang):
   XX=           -100.7332   YY=           -100.9424   ZZ=           -125.9337
   XY=             -0.0001   XZ=              0.0000   YZ=             -0.0000

 Normal termination of Gaussian 16 at Mon May 30 06:37:13 2022.
