 Gaussian 16, Revision B.01,
 Gaussian 16:  EM64L-G16RevB.01 20-Dec-2017

 ---------------------
 #n wB97xd/6-31G(d) SP
 ---------------------

 -----
 Title
 -----
 Symbolic Z-matrix:
 Charge =  0 Multiplicity = 1

                         Standard orientation:
 ---------------------------------------------------------------------
 Center     Atomic      Atomic             Coordinates (Angstroms)
 Number     Number       Type             X           Y           Z
 ---------------------------------------------------------------------
      1          6           0       -2.003516   -2.452170   -0.570343
      2          6           0       -1.997000   -2.377922    0.842277
      3          6           0       -1.993672   -1.163398    1.472745
      4          6           0       -1.996732    0.037688    0.713342
      5          6           0       -2.003227   -0.036233   -0.694790
      6          6           0       -2.006573   -1.310255   -1.324441
      7          6           0       -2.006289    1.164831   -1.454493
      8          6           0       -2.002960    2.379355   -0.824025
      9          6           0       -1.996445    2.453503    0.588602
     10          6           0       -1.993386    1.311709    1.342992
     11          1           0       -2.006072   -3.436088   -1.050541
     12          1           0       -1.994663   -3.306048    1.423015
     13          1           0       -1.988624   -1.097696    2.566549
     14          1           0       -2.011619   -1.359280   -2.419156
     15          1           0       -2.011336    1.098936   -2.548182
     16          1           0       -2.005296    3.307702   -1.404478
     17          1           0       -1.993889    3.437414    1.068701
     18          1           0       -1.988341    1.360926    2.437594
     19          6           0       -0.407870   -0.054680   -0.752054
     20          6           0       -0.429753    0.047903    0.658637
     21          6           0        0.739137    0.099481    1.368287
     22          6           0        1.989036    0.050421    0.694004
     23          6           0        2.010940   -0.051835   -0.712199
     24          6           0        0.782634   -0.103647   -1.425067
     25          6           0        3.260837   -0.100917   -1.386781
     26          6           0        4.429728   -0.049339   -0.677131
     27          6           0        4.407744    0.053245    0.733560
     28          6           0        3.217342    0.102233    1.406872
     29          1           0       -1.356895   -0.094254   -1.296551
     30          1           0       -1.395185    0.085373    1.173629
     31          1           0        0.730385    0.178953    2.461154
     32          1           0        0.808087   -0.183102   -2.517711
     33          1           0        3.269389   -0.180381   -2.479547
     34          1           0        5.395360   -0.086787   -1.191825
     35          1           0        5.356769    0.092811    1.277958
     36          1           0        3.192088    0.181681    2.499415
 ---------------------------------------------------------------------

 SCF Done:  E(RwB97XD) =  -770.435170854     A.U. after   29 cycles

 The electronic state is 1-A.
 Alpha  occ. eigenvalues --  -10.43326 -10.42366 -10.39593 -10.38212 -10.31618
 Alpha  occ. eigenvalues --  -10.31074 -10.30887 -10.30674 -10.30528 -10.30475
 Alpha  occ. eigenvalues --  -10.30237 -10.29960 -10.29780 -10.29563 -10.29275
 Alpha  occ. eigenvalues --  -10.28958 -10.28586 -10.28520 -10.28386 -10.28319
 Alpha  occ. eigenvalues --   -1.26831  -1.17194  -0.97467  -0.94698  -0.92465
 Alpha  occ. eigenvalues --   -0.89139  -0.86786  -0.85121  -0.84507  -0.82484
 Alpha  occ. eigenvalues --   -0.81429  -0.78496  -0.76430  -0.75004  -0.69391
 Alpha  occ. eigenvalues --   -0.68321  -0.66757  -0.63783  -0.63117  -0.62927
 Alpha  occ. eigenvalues --   -0.60504  -0.59319  -0.57101  -0.56633  -0.54083
 Alpha  occ. eigenvalues --   -0.53611  -0.53079  -0.52933  -0.52776  -0.50454
 Alpha  occ. eigenvalues --   -0.50183  -0.48860  -0.48342  -0.46667  -0.45574
 Alpha  occ. eigenvalues --   -0.44669  -0.44494  -0.44212  -0.42002  -0.40557
 Alpha  occ. eigenvalues --   -0.38834  -0.38539  -0.38290  -0.32982  -0.31498
 Alpha  occ. eigenvalues --   -0.26814  -0.26611  -0.14209
 Alpha virt. eigenvalues --    0.00459   0.03157   0.04934   0.05556   0.10459
 Alpha virt. eigenvalues --    0.10880   0.14713   0.14897   0.15475   0.16698
 Alpha virt. eigenvalues --    0.17546   0.18611   0.19839   0.20718   0.21074

 Mulliken charges:
               1
     1  C   -0.186766
     2  C   -0.176835
     3  C   -0.330349
     4  C    0.052055
     5  C    0.018845
     6  C   -0.335171
     7  C   -0.323634
     8  C   -0.189750
     9  C   -0.178894
    10  C   -0.349930
    11  H    0.170675
    12  H    0.172211
    13  H    0.196270
    14  H    0.208040
    15  H    0.200150
    16  H    0.166550
    17  H    0.169420
    18  H    0.194836
    19  C    0.121333
    20  C    0.133102
    21  C   -0.324075
    22  C    0.120164
    23  C    0.127918
    24  C   -0.343200
    25  C   -0.225417
    26  C   -0.179473
    27  C   -0.181733
    28  C   -0.223115
    29  H    0.269444
    30  H    0.272672
    31  H    0.169824
    32  H    0.166260
    33  H    0.153402
    34  H    0.155943
    35  H    0.155671
    36  H    0.153559
 Sum of Mulliken charges =  -0.00000

 Dipole moment (field-independent basis, Debye):
    X=             -1.5542    Y=             -0.2867    Z=             -0.1038  Tot=              1.5838
 Quadrupole moment (field-independent basis, Debye-Ang):
   XX=           -123.0066   YY=           -119.0331   ZZ=           -101.2363
   XY=              0.7228   XZ=              0.4242   YZ=              1.2198

 Normal termination of Gaussian 16 at Mon May 30 06:39:17 2022.
