 Gaussian 16, Revision A.03,
 Gaussian 16:  ES64L-G16RevA.03 25-Dec-2016

 ---------------------
 #n wB97xd/6-31G(d) SP
 ---------------------

 -----
 Title
 -----
 Symbolic Z-matrix:
 Charge =  0 Multiplicity = 1

                         Standard orientation:
 ---------------------------------------------------------------------
 Center     Atomic      Atomic             Coordinates (Angstroms)
 Number     Number       Type             X           Y           Z
 ---------------------------------------------------------------------
      1          6           0       -1.221100    0.705000    1.000000
      2          1           0       -2.052480    1.185000    1.000000
      3          6           0        0.000000    1.410000    1.000000
      4          1           0        0.000000    2.370000    1.000000
      5          6           0        1.221100    0.705000    1.000000
      6          1           0        2.052480    1.185000    1.000000
      7          6           0       -1.221100   -0.705000    1.000000
      8          1           0       -2.052480   -1.185000    1.000000
      9          6           0       -0.000000   -1.410000    1.000000
     10          1           0       -0.000000   -2.370000    1.000000
     11          6           0        1.221100   -0.705000    1.000000
     12          1           0        2.052480   -1.185000    1.000000
     13          6           0        0.000000    1.410000   -1.000000
     14          1           0        0.000000    2.370000   -1.000000
     15          6           0        1.221100    0.705000   -1.000000
     16          1           0        2.052480    1.185000   -1.000000
     17          6           0        1.221100   -0.705000   -1.000000
     18          1           0        2.052480   -1.185000   -1.000000
     19          6           0       -1.221100    0.705000   -1.000000
     20          1           0       -2.052480    1.185000   -1.000000
     21          6           0       -1.221100   -0.705000   -1.000000
     22          1           0       -2.052480   -1.185000   -1.000000
     23          6           0       -0.000000   -1.410000   -1.000000
     24          1           0       -0.000000   -2.370000   -1.000000
 ---------------------------------------------------------------------

 SCF Done:  E(RwB97XD) =  -463.744254264     A.U. after   13 cycles

 The electronic state is 1-AG.
 Alpha  occ. eigenvalues --  -10.27792 -10.27792 -10.27769 -10.27769 -10.27768
 Alpha  occ. eigenvalues --  -10.27768 -10.27720 -10.27719 -10.27719 -10.27719
 Alpha  occ. eigenvalues --  -10.27695 -10.27695  -1.00995  -0.90661  -0.90661
 Alpha  occ. eigenvalues --   -0.89684  -0.79842  -0.79841  -0.75853  -0.75853
 Alpha  occ. eigenvalues --   -0.66785  -0.66785  -0.66470  -0.62769  -0.59598
 Alpha  occ. eigenvalues --   -0.54787  -0.54787  -0.54685  -0.54643  -0.52765
 Alpha  occ. eigenvalues --   -0.48872  -0.48595  -0.48595  -0.45625  -0.45624
 Alpha  occ. eigenvalues --   -0.40783  -0.40782  -0.40259  -0.40258  -0.24437
 Alpha  occ. eigenvalues --   -0.19249  -0.19249
 Alpha virt. eigenvalues --    0.01525   0.01526   0.11615   0.16875   0.20997
 Alpha virt. eigenvalues --    0.20997   0.22301   0.22301   0.23336   0.23336
 Alpha virt. eigenvalues --    0.26874   0.28072   0.32590   0.32590   0.34688

 Mulliken charges:
               1
     1  C   -0.164464
     2  H    0.164468
     3  C   -0.164479
     4  H    0.164471
     5  C   -0.164464
     6  H    0.164468
     7  C   -0.164464
     8  H    0.164468
     9  C   -0.164479
    10  H    0.164471
    11  C   -0.164464
    12  H    0.164468
    13  C   -0.164479
    14  H    0.164471
    15  C   -0.164464
    16  H    0.164468
    17  C   -0.164464
    18  H    0.164468
    19  C   -0.164464
    20  H    0.164468
    21  C   -0.164464
    22  H    0.164468
    23  C   -0.164479
    24  H    0.164471
 Sum of Mulliken charges =  -0.00000

 Dipole moment (field-independent basis, Debye):
    X=              0.0000    Y=              0.0000    Z=             -0.0000  Tot=              0.0000
 Quadrupole moment (field-independent basis, Debye-Ang):
   XX=            -62.8711   YY=            -62.8709   ZZ=            -79.4198
   XY=              0.0000   XZ=              0.0000   YZ=             -0.0000

 1\1\GINC-PADAWAN-42\SP\RwB97XD\6-31G(d)\C12H12\PADAWAN\29-Mar-2022\0\\
 #n wB97xd/6-31G(d) SP\\Title\\0,1\C,0,-1.2211,-0.705,0.\H,0,-2.05248,-
 1.185,0.\C,0,0.,-1.41,0.\H,0,0.,-2.37,0.\C,0,1.2211,-0.705,0.\H,0,2.05
 248,-1.185,0.\C,0,-1.2211,0.705,0.\H,0,-2.05248,1.185,0.\C,0,0.,1.41,0
 .\H,0,0.,2.37,0.\C,0,1.2211,0.705,0.\H,0,2.05248,1.185,0.\C,0,0.,-1.41
 ,2.\H,0,0.,-2.37,2.\C,0,1.2211,-0.705,2.\H,0,2.05248,-1.185,2.\C,0,1.2
 211,0.705,2.\H,0,2.05248,1.185,2.\C,0,-1.2211,-0.705,2.\H,0,-2.05248,-
 1.185,2.\C,0,-1.2211,0.705,2.\H,0,-2.05248,1.185,2.\C,0,0.,1.41,2.\H,0

 Normal termination of Gaussian 16 at Tue Mar 29 10:07:43 2022.
