 Gaussian 16, Revision A.03,
 Gaussian 16:  ES64L-G16RevA.03 25-Dec-2016

 ---------------------
 #n wB97xd/6-31G(d) SP
 ---------------------

 -----
 Title
 -----
 Symbolic Z-matrix:
 Charge =  0 Multiplicity = 1

                         Standard orientation:
 ---------------------------------------------------------------------
 Center     Atomic      Atomic             Coordinates (Angstroms)
 Number     Number       Type             X           Y           Z
 ---------------------------------------------------------------------
      1          6           0       -1.221100    0.705000    2.000000
      2          1           0       -2.052480    1.185000    2.000000
      3          6           0        0.000000    1.410000    2.000000
      4          1           0        0.000000    2.370000    2.000000
      5          6           0        1.221100    0.705000    2.000000
      6          1           0        2.052480    1.185000    2.000000
      7          6           0       -1.221100   -0.705000    2.000000
      8          1           0       -2.052480   -1.185000    2.000000
      9          6           0       -0.000000   -1.410000    2.000000
     10          1           0       -0.000000   -2.370000    2.000000
     11          6           0        1.221100   -0.705000    2.000000
     12          1           0        2.052480   -1.185000    2.000000
     13          6           0        0.000000    1.410000   -2.000000
     14          1           0        0.000000    2.370000   -2.000000
     15          6           0        1.221100    0.705000   -2.000000
     16          1           0        2.052480    1.185000   -2.000000
     17          6           0        1.221100   -0.705000   -2.000000
     18          1           0        2.052480   -1.185000   -2.000000
     19          6           0       -1.221100    0.705000   -2.000000
     20          1           0       -2.052480    1.185000   -2.000000
     21          6           0       -1.221100   -0.705000   -2.000000
     22          1           0       -2.052480   -1.185000   -2.000000
     23          6           0       -0.000000   -1.410000   -2.000000
     24          1           0       -0.000000   -2.370000   -2.000000
 ---------------------------------------------------------------------

 SCF Done:  E(RwB97XD) =  -464.168521224     A.U. after   11 cycles

 The electronic state is 1-AG.
 Alpha  occ. eigenvalues --  -10.27984 -10.27984 -10.27960 -10.27960 -10.27959
 Alpha  occ. eigenvalues --  -10.27959 -10.27908 -10.27907 -10.27907 -10.27907
 Alpha  occ. eigenvalues --  -10.27883 -10.27883  -0.93687  -0.93550  -0.84025
 Alpha  occ. eigenvalues --   -0.84025  -0.83908  -0.83908  -0.70425  -0.70424
 Alpha  occ. eigenvalues --   -0.70329  -0.70329  -0.62390  -0.62300  -0.58398
 Alpha  occ. eigenvalues --   -0.58314  -0.51123  -0.51078  -0.50947  -0.50947
 Alpha  occ. eigenvalues --   -0.50881  -0.50881  -0.44236  -0.42570  -0.42470
 Alpha  occ. eigenvalues --   -0.42470  -0.42423  -0.42423  -0.31796  -0.31796
 Alpha  occ. eigenvalues --   -0.30319  -0.30319
 Alpha virt. eigenvalues --    0.07114   0.07115   0.08654   0.08654   0.21755
 Alpha virt. eigenvalues --    0.22856   0.24124   0.25490   0.26343   0.26343
 Alpha virt. eigenvalues --    0.27659   0.27659   0.28534   0.28534   0.29621

 Mulliken charges:
               1
     1  C   -0.151648
     2  H    0.151655
     3  C   -0.151673
     4  H    0.151659
     5  C   -0.151648
     6  H    0.151655
     7  C   -0.151648
     8  H    0.151655
     9  C   -0.151673
    10  H    0.151659
    11  C   -0.151648
    12  H    0.151655
    13  C   -0.151673
    14  H    0.151659
    15  C   -0.151648
    16  H    0.151655
    17  C   -0.151648
    18  H    0.151655
    19  C   -0.151648
    20  H    0.151655
    21  C   -0.151648
    22  H    0.151655
    23  C   -0.151673
    24  H    0.151659
 Sum of Mulliken charges =  -0.00000

 Dipole moment (field-independent basis, Debye):
    X=             -0.0000    Y=              0.0000    Z=             -0.0000  Tot=              0.0000
 Quadrupole moment (field-independent basis, Debye-Ang):
   XX=            -60.9855   YY=            -60.9857   ZZ=            -76.8370
   XY=             -0.0000   XZ=             -0.0000   YZ=             -0.0000

 1\1\GINC-PADAWAN-42\SP\RwB97XD\6-31G(d)\C12H12\PADAWAN\23-Mar-2022\0\\
 #n wB97xd/6-31G(d) SP\\Title\\0,1\C,0,-1.2211,-0.705,0.\H,0,-2.05248,-
 1.185,0.\C,0,0.,-1.41,0.\H,0,0.,-2.37,0.\C,0,1.2211,-0.705,0.\H,0,2.05
 248,-1.185,0.\C,0,-1.2211,0.705,0.\H,0,-2.05248,1.185,0.\C,0,0.,1.41,0
 .\H,0,0.,2.37,0.\C,0,1.2211,0.705,0.\H,0,2.05248,1.185,0.\C,0,0.,-1.41
 ,4.\H,0,0.,-2.37,4.\C,0,1.2211,-0.705,4.\H,0,2.05248,-1.185,4.\C,0,1.2
 211,0.705,4.\H,0,2.05248,1.185,4.\C,0,-1.2211,-0.705,4.\H,0,-2.05248,-
 1.185,4.\C,0,-1.2211,0.705,4.\H,0,-2.05248,1.185,4.\C,0,0.,1.41,4.\H,0

 Normal termination of Gaussian 16 at Wed Mar 23 15:16:45 2022.
