 Gaussian 16, Revision A.03,
 Gaussian 16:  ES64L-G16RevA.03 25-Dec-2016

 ---------------------
 #n wB97xd/6-31G(d) SP
 ---------------------

 -----
 Title
 -----
 Symbolic Z-matrix:
 Charge =  0 Multiplicity = 1

                         Standard orientation:
 ---------------------------------------------------------------------
 Center     Atomic      Atomic             Coordinates (Angstroms)
 Number     Number       Type             X           Y           Z
 ---------------------------------------------------------------------
      1          6           0        1.221100    0.705000   -2.000000
      2          1           0        2.052480    1.185000   -2.000000
      3          6           0       -0.000000    1.410000   -2.000000
      4          1           0       -0.000000    2.370000   -2.000000
      5          6           0       -1.221100    0.705000   -2.000000
      6          1           0       -2.052480    1.185000   -2.000000
      7          6           0        1.221100   -0.705000   -2.000000
      8          1           0        2.052480   -1.185000   -2.000000
      9          6           0       -0.000000   -1.410000   -2.000000
     10          1           0       -0.000000   -2.370000   -2.000000
     11          6           0       -1.221100   -0.705000   -2.000000
     12          1           0       -2.052480   -1.185000   -2.000000
     13          6           0       -0.000000    0.705000    3.221100
     14          1           0       -0.000000    1.185000    4.052480
     15          6           0       -0.000000    1.410000    2.000000
     16          1           0       -0.000000    2.370000    2.000000
     17          6           0       -0.000000    0.705000    0.778900
     18          1           0       -0.000000    1.185000   -0.052480
     19          6           0       -0.000000   -0.705000    3.221100
     20          1           0       -0.000000   -1.185000    4.052480
     21          6           0       -0.000000   -1.410000    2.000000
     22          1           0       -0.000000   -2.370000    2.000000
     23          6           0       -0.000000   -0.705000    0.778900
     24          1           0       -0.000000   -1.185000   -0.052480
 ---------------------------------------------------------------------

 SCF Done:  E(RwB97XD) =  -464.136593570     A.U. after   13 cycles

 The electronic state is 1-A1.
 Alpha  occ. eigenvalues --  -10.29156 -10.29143 -10.29117 -10.29090 -10.29045
 Alpha  occ. eigenvalues --  -10.29036 -10.27288 -10.27239 -10.27124 -10.27123
 Alpha  occ. eigenvalues --  -10.26287 -10.26235  -0.95507  -0.92741  -0.85818
 Alpha  occ. eigenvalues --   -0.85295  -0.83154  -0.83110  -0.71828  -0.71663
 Alpha  occ. eigenvalues --   -0.69687  -0.69553  -0.63700  -0.61786  -0.59591
 Alpha  occ. eigenvalues --   -0.57776  -0.52470  -0.52342  -0.52170  -0.51336
 Alpha  occ. eigenvalues --   -0.50294  -0.50236  -0.43745  -0.43722  -0.43239
 Alpha  occ. eigenvalues --   -0.42865  -0.42400  -0.41029  -0.33478  -0.30961
 Alpha  occ. eigenvalues --   -0.30467  -0.29305
 Alpha virt. eigenvalues --    0.05351   0.05683   0.08589   0.09538   0.21204
 Alpha virt. eigenvalues --    0.22815   0.23843   0.25163   0.25705   0.26318
 Alpha virt. eigenvalues --    0.27631   0.27915   0.28189   0.29077   0.30455

 Mulliken charges:
               1
     1  C   -0.134258
     2  H    0.162790
     3  C   -0.208089
     4  H    0.164854
     5  C   -0.134258
     6  H    0.162790
     7  C   -0.134258
     8  H    0.162790
     9  C   -0.208089
    10  H    0.164854
    11  C   -0.134258
    12  H    0.162790
    13  C   -0.157799
    14  H    0.148459
    15  C   -0.167320
    16  H    0.143082
    17  C   -0.111355
    18  H    0.131105
    19  C   -0.157799
    20  H    0.148459
    21  C   -0.167320
    22  H    0.143082
    23  C   -0.111355
    24  H    0.131105
 Sum of Mulliken charges =   0.00000

 Dipole moment (field-independent basis, Debye):
    X=             -0.0000    Y=             -0.0000    Z=             -0.7575  Tot=              0.7575
 Quadrupole moment (field-independent basis, Debye-Ang):
   XX=            -67.9906   YY=            -61.0810   ZZ=            -70.5148
   XY=              0.0000   XZ=              0.0000   YZ=             -0.0000

 1\1\GINC-PADAWAN-42\SP\RwB97XD\6-31G(d)\C12H12\PADAWAN\29-Mar-2022\0\\
 #n wB97xd/6-31G(d) SP\\Title\\0,1\C,0,-1.2211,-0.705,0.\H,0,-2.05248,-
 1.185,0.\C,0,0.,-1.41,0.\H,0,0.,-2.37,0.\C,0,1.2211,-0.705,0.\H,0,2.05
 248,-1.185,0.\C,0,-1.2211,0.705,0.\H,0,-2.05248,1.185,0.\C,0,0.,1.41,0
 .\H,0,0.,2.37,0.\C,0,1.2211,0.705,0.\H,0,2.05248,1.185,0.\C,0,0.,-0.70
 5,5.2211\H,0,0.,-1.185,6.05248\C,0,0.,-1.41,4.\H,0,0.,-2.37,4.\C,0,0.,
 -0.705,2.7789\H,0,0.,-1.185,1.94752\C,0,0.,0.705,5.2211\H,0,0.,1.185,6
 .05248\C,0,0.,1.41,4.\H,0,0.,2.37,4.\C,0,0.,0.705,2.7789\H,0,0.,1.185,

 Normal termination of Gaussian 16 at Tue Mar 29 10:25:52 2022.
