 Gaussian 16, Revision B.01,
 Gaussian 16:  EM64L-G16RevB.01 20-Dec-2017

 ---------------------
 #n wB97xd/6-31G(d) SP
 ---------------------

 -----
 Title
 -----
 Symbolic Z-matrix:
 Charge =  0 Multiplicity = 1

                         Standard orientation:
 ---------------------------------------------------------------------
 Center     Atomic      Atomic             Coordinates (Angstroms)
 Number     Number       Type             X           Y           Z
 ---------------------------------------------------------------------
      1          6           0       -2.000015   -0.911131   -2.349953
      2          6           0       -2.000025   -2.033472   -1.488906
      3          6           0       -2.000020   -1.865474   -0.130839
      4          6           0       -2.000005   -0.559456    0.429185
      5          6           0       -1.999995    0.559370   -0.429052
      6          6           0       -2.000001    0.357011   -1.835697
      7          6           0       -1.999980    1.865623    0.130785
      8          6           0       -1.999975    2.033621    1.488852
      9          6           0       -1.999985    0.911218    2.349821
     10          6           0       -1.999999   -0.357096    1.835831
     11          1           0       -2.000019   -1.072421   -3.432856
     12          1           0       -2.000036   -3.037669   -1.925102
     13          1           0       -2.000027   -2.729863    0.542646
     14          1           0       -1.999993    1.231594   -2.495952
     15          1           0       -1.999973    2.729808   -0.542793
     16          1           0       -1.999964    3.037708    1.925392
     17          1           0       -1.999981    1.072585    3.432661
     18          1           0       -2.000007   -1.231476    2.496179
     19          6           0        2.000022    2.349935   -0.911159
     20          6           0        2.000011    1.488888   -2.033500
     21          6           0        1.999997    0.130821   -1.865502
     22          6           0        1.999994   -0.429203   -0.559484
     23          6           0        2.000006    0.429034    0.559343
     24          6           0        2.000020    1.835680    0.356983
     25          6           0        2.000003   -0.130803    1.865595
     26          6           0        1.999989   -1.488870    2.033593
     27          6           0        1.999978   -2.349839    0.911190
     28          6           0        1.999980   -1.835848   -0.357124
     29          1           0        2.000033    3.432838   -1.072448
     30          1           0        2.000013    1.925084   -3.037697
     31          1           0        1.999988   -0.542663   -2.729890
     32          1           0        2.000029    2.495934    1.231566
     33          1           0        2.000012    0.542776    2.729780
     34          1           0        1.999987   -1.925409    3.037681
     35          1           0        1.999967   -3.432679    1.072557
     36          1           0        1.999971   -2.496197   -1.231504
 ---------------------------------------------------------------------

 SCF Done:  E(RwB97XD) =  -771.517666474     A.U. after   13 cycles

 The electronic state is 1-A.
 Alpha  occ. eigenvalues --  -10.30137 -10.30136 -10.30086 -10.30086 -10.29684
 Alpha  occ. eigenvalues --  -10.29684 -10.29684 -10.29683 -10.29660 -10.29659
 Alpha  occ. eigenvalues --  -10.29657 -10.29657 -10.29609 -10.29609 -10.29608
 Alpha  occ. eigenvalues --  -10.29608 -10.29587 -10.29587 -10.29586 -10.29586
 Alpha  occ. eigenvalues --   -0.96983  -0.96852  -0.91427  -0.91427  -0.86436
 Alpha  occ. eigenvalues --   -0.86436  -0.83157  -0.83153  -0.80912  -0.80807
 Alpha  occ. eigenvalues --   -0.71060  -0.71060  -0.69541  -0.69541  -0.68275
 Alpha  occ. eigenvalues --   -0.68253  -0.59601  -0.59601  -0.58948  -0.58910
 Alpha  occ. eigenvalues --   -0.57450  -0.57440  -0.52660  -0.52660  -0.51885
 Alpha  occ. eigenvalues --   -0.51846  -0.49314  -0.49277  -0.49039  -0.49039
 Alpha  occ. eigenvalues --   -0.48070  -0.47613  -0.47613  -0.46544  -0.44146
 Alpha  occ. eigenvalues --   -0.44146  -0.40730  -0.40729  -0.40619  -0.40619
 Alpha  occ. eigenvalues --   -0.40361  -0.40328  -0.35523  -0.35523  -0.30886
 Alpha  occ. eigenvalues --   -0.30728  -0.28527  -0.27220
 Alpha virt. eigenvalues --    0.03757   0.03757   0.06890   0.06890   0.11328
 Alpha virt. eigenvalues --    0.11506   0.17460   0.17999   0.18831   0.19469
 Alpha virt. eigenvalues --    0.19628   0.19628   0.20777   0.20777   0.25091

 Mulliken charges:
               1
     1  C   -0.175972
     2  C   -0.175935
     3  C   -0.201681
     4  C    0.105131
     5  C    0.105046
     6  C   -0.201661
     7  C   -0.201635
     8  C   -0.175915
     9  C   -0.175989
    10  C   -0.201633
    11  H    0.161606
    12  H    0.161579
    13  H    0.163455
    14  H    0.163460
    15  H    0.163482
    16  H    0.161592
    17  H    0.161578
    18  H    0.163492
    19  C   -0.175973
    20  C   -0.175935
    21  C   -0.201680
    22  C    0.105130
    23  C    0.105046
    24  C   -0.201661
    25  C   -0.201635
    26  C   -0.175916
    27  C   -0.175988
    28  C   -0.201633
    29  H    0.161606
    30  H    0.161579
    31  H    0.163455
    32  H    0.163459
    33  H    0.163482
    34  H    0.161592
    35  H    0.161578
    36  H    0.163493
 Sum of Mulliken charges =  -0.00000

 Dipole moment (field-independent basis, Debye):
    X=              0.0000    Y=              0.0000    Z=              0.0003  Tot=              0.0003
 Quadrupole moment (field-independent basis, Debye-Ang):
   XX=           -125.7410   YY=           -100.9446   ZZ=           -100.9446
   XY=             -0.0003   XZ=              0.0001   YZ=              0.0000

 Normal termination of Gaussian 16 at Mon May 30 06:39:43 2022.
