 Gaussian 16, Revision B.01,
 Gaussian 16:  EM64L-G16RevB.01 20-Dec-2017

 ---------------------
 #n wB97xd/6-31G(d) SP
 ---------------------

 -----
 Title
 -----
 Symbolic Z-matrix:
 Charge =  0 Multiplicity = 1

                         Standard orientation:
 ---------------------------------------------------------------------
 Center     Atomic      Atomic             Coordinates (Angstroms)
 Number     Number       Type             X           Y           Z
 ---------------------------------------------------------------------
      1          6           0        1.964469    2.438990   -0.738035
      2          6           0        1.964154    2.456927    0.676437
      3          6           0        1.981300    1.286182    1.384697
      4          6           0        1.999628    0.038308    0.705148
      5          6           0        1.999942    0.020338   -0.704823
      6          6           0        1.981925    1.250501   -1.416144
      7          6           0        2.018270   -1.227533   -1.384672
      8          6           0        2.035416   -2.398278   -0.676412
      9          6           0        2.035100   -2.380241    0.738060
     10          6           0        2.017645   -1.191854    1.416469
     11          1           0        1.950548    3.389432   -1.281319
     12          1           0        1.949998    3.420810    1.195480
     13          1           0        1.981177    1.291877    2.480469
     14          1           0        1.982293    1.228106   -2.511739
     15          1           0        2.018390   -1.233029   -2.480343
     16          1           0        2.049575   -3.362364   -1.195157
     17          1           0        2.049020   -3.330683    1.281245
     18          1           0        2.017279   -1.169659    2.511963
     19          6           0       -2.790875    2.363651    0.017682
     20          6           0       -1.377144    2.412789    0.017944
     21          6           0       -0.643227    1.257860    0.009349
     22          6           0       -1.295079   -0.004801    0.000058
     23          6           0       -2.704311   -0.053873   -0.000203
     24          6           0       -3.442599    1.160396    0.008830
     25          6           0       -3.356463   -1.316539   -0.009495
     26          6           0       -2.622546   -2.471468   -0.018089
     27          6           0       -1.208816   -2.422230   -0.017827
     28          6           0       -0.556791   -1.219071   -0.008976
     29          1           0       -3.354997    3.301953    0.024662
     30          1           0       -0.879492    3.387966    0.025120
     31          1           0        0.452153    1.287727    0.009491
     32          1           0       -4.537434    1.113836    0.008565
     33          1           0       -4.451746   -1.346205   -0.009635
     34          1           0       -3.119895   -3.446840   -0.025267
     35          1           0       -0.644794   -3.360533   -0.024807
     36          1           0        0.537947   -1.172712   -0.008712
 ---------------------------------------------------------------------

 SCF Done:  E(RwB97XD) =  -771.450700226     A.U. after   14 cycles

 The electronic state is 1-A.
 Alpha  occ. eigenvalues --  -10.32023 -10.31970 -10.31423 -10.31412 -10.31387
 Alpha  occ. eigenvalues --  -10.31375 -10.31259 -10.31211 -10.31191 -10.31142
 Alpha  occ. eigenvalues --  -10.28855 -10.28596 -10.28584 -10.28380 -10.28372
 Alpha  occ. eigenvalues --  -10.28351 -10.28116 -10.28066 -10.27032 -10.26961
 Alpha  occ. eigenvalues --   -0.99869  -0.95504  -0.94045  -0.90065  -0.88487
 Alpha  occ. eigenvalues --   -0.85286  -0.85064  -0.82806  -0.81864  -0.79516
 Alpha  occ. eigenvalues --   -0.73108  -0.71336  -0.70442  -0.69785  -0.68260
 Alpha  occ. eigenvalues --   -0.67270  -0.62090  -0.60585  -0.59417  -0.58492
 Alpha  occ. eigenvalues --   -0.57625  -0.56508  -0.54535  -0.54390  -0.53703
 Alpha  occ. eigenvalues --   -0.51146  -0.50986  -0.50677  -0.49523  -0.49250
 Alpha  occ. eigenvalues --   -0.47697  -0.46869  -0.46261  -0.45848  -0.45162
 Alpha  occ. eigenvalues --   -0.43699  -0.42512  -0.42125  -0.39469  -0.39440
 Alpha  occ. eigenvalues --   -0.38609  -0.38376  -0.36774  -0.33543  -0.33142
 Alpha  occ. eigenvalues --   -0.30677  -0.29686  -0.25793
 Alpha virt. eigenvalues --    0.01812   0.04361   0.05159   0.08332   0.09012
 Alpha virt. eigenvalues --    0.12858   0.15956   0.17004   0.17839   0.19328
 Alpha virt. eigenvalues --    0.19464   0.20672   0.21613   0.23248   0.24595

 Mulliken charges:
               1
     1  C   -0.171468
     2  C   -0.173231
     3  C   -0.190041
     4  C    0.088716
     5  C    0.088317
     6  C   -0.188596
     7  C   -0.187120
     8  C   -0.170261
     9  C   -0.169012
    10  C   -0.185486
    11  H    0.176351
    12  H    0.176217
    13  H    0.178714
    14  H    0.178682
    15  H    0.179217
    16  H    0.176678
    17  H    0.176769
    18  H    0.179162
    19  C   -0.174483
    20  C   -0.209884
    21  C   -0.037539
    22  C    0.067990
    23  C    0.102972
    24  C   -0.217284
    25  C   -0.217126
    26  C   -0.175268
    27  C   -0.207012
    28  C   -0.018748
    29  H    0.155143
    30  H    0.137019
    31  H    0.025921
    32  H    0.156257
    33  H    0.156068
    34  H    0.154790
    35  H    0.135105
    36  H    0.002474
 Sum of Mulliken charges =  -0.00000

 Dipole moment (field-independent basis, Debye):
    X=              1.8944    Y=             -0.0045    Z=              0.0005  Tot=              1.8944
 Quadrupole moment (field-independent basis, Debye-Ang):
   XX=           -115.4727   YY=           -101.0767   ZZ=           -110.8380
   XY=             -0.2968   XZ=             -0.0000   YZ=              0.0387

 Normal termination of Gaussian 16 at Mon May 30 06:38:10 2022.
